/*--------------------------------*- C++ -*----------------------------------*\
| =========                 |                                                 |
| \\      /  F ield         | OpenFOAM: The Open Source CFD Toolbox           |
|  \\    /   O peration     | Version:  2406                                  |
|   \\  /    A nd           | Website:  www.openfoam.com                      |
|    \\/     M anipulation  |                                                 |
\*---------------------------------------------------------------------------*/
FoamFile
{
    version     2.0;
    format      ascii;
    arch        "LSB;label=32;scalar=64";
    class       volScalarField;
    location    "0";
    object      thicknessFraction;
}
// * * * * * * * * * * * * * * * * * * * * * * * * * * * * * * * * * * * * * //

dimensions      [0 0 0 0 0 0 0];

internalField   uniform 0;

boundaryField
{
    minX
    {
        type            fixedValue;
        value           uniform 0;
    }
    maxX
    {
        type            fixedValue;
        value           uniform 0;
    }
    minY
    {
        type            fixedValue;
        value           uniform 0;
    }
    maxY
    {
        type            fixedValue;
        value           uniform 0;
    }
    front
    {
        type            empty;
    }
    back
    {
        type            empty;
    }
    stlSurface
    {
        type            fixedValue;
        value           nonuniform List<scalar> 
3072
(
0
0
0
0
0
0
0
0
0
0
0
0
0
0
0
0
0
0
0
0
0
0
0
0
0
0
0
0
0
0
0
0
0
0
0
0
0
0
0
0
0
0
0
0
0
0
0
0
0
0
0
0
0
0
0
0
0
0
0
0
0
0
0
0
0
0
0
0
0
0
0
0
0
0
0
0
0
0
0
0
0
0
0
0
0
0
0
0
0
0
0
0
0
0
0
0
0
0
0
0
0
0
0
0
0
0
0
0
0
0
0
0
0
0
0
0
0
0
0
0
0
0
0
0
0
0
0
0
0
0
0
0
0
0
0
0
0
0
0
0
0
0
0
0
0
0
0
0
0
0
0
0
0
0
0
0
0
0
0
0
0
0
0
0
0
0
0
0
0
0
0
0
0
0
0
0
0
0
0
0
0
0
0
0
0
0
0
0
0
0
0
0
0
0
0
0
0
0
0
0
0
0
0
0
0
0
0
0
0
0
0
0
0
0
0
0
0
0
0
0
0
0
0
0
0
0
0
0
0
0
0
0
0
0
0
0
0
0
0
0
0
0
0
0
0
0
0
0
0
0
0
0
0
0
0
0
0
0
0
0
0
0
0
0
0
0
0
0
0
0
0
0
0
0
0
0
0
0
0
0
0
0
0
0
0
0
0
0
0
0
0
0
0
0
0
0
0
0
0
0
0
0
0
0
0
0
0
0
0
0
0
0
0
0
0
0
0
0
0
0
0
0
0
0
0
0
0
0
0
0
0
0
0
0
0
0
0
0
0
0
0
0
0
0
0
0
0
0
0
0
0
0
0
0
0
0
0
0
0
0
0
0
0
0
0
0
0
0
0
0
0
0
0
0
0
0
0
0
0
0
0
0
0
0
0
0
0
0
0
0
0
0
0
0
0
0
0
0
0
0
0
0
0
0
0
0
0
0
0
0
0
0
0
0
0
0
0
0
0
0
0
0
0
0
0
0
0
0
0
0
0
0
0
0
0
0
0
0
0
0
0
0
0
0
0
0
0
0
0
0
0
0
0
0
0
0
0
0
0
0
0
0
0
0
0
0
0
0
0
0
0
0
0
0
0
0
0
0
0
0
0
0
0
0
0
0
0
0
0
0
0
0
0
0
0
0
0
0
0
0
0
0
0
0
0
0
0
0
0
0
0
0
0
0
0
0
0
0
0
0
0
0
0
0
0
0
0
0
0
0
0
0
0
0
0
0
0
0
0
0
0
0
0
0
0
0
0
0
0
0
0
0
0
0
0
0
0
0
0
0
0
0
0
0
0
0
0
0
0
0
0
0
0
0
0
0
0
0
0
0
0
0
0
0
0
0
0
0
0
0
0
0
0
0
0
0
0
0
0
0
0
0
0
0
0
0
0
0
0
0
0
0
0
0
0
0
0
0
0
0
0
0
0
0
0
0
0
0
0
0
0
0
0
0
0
0
0
0
0
0
0
0
0
0
0
0
0
0
0
0
0
0
0
0
0
0
0
0
0
0
0
0
0
0
0
0
0
0
0
0
0
0
0
0
0
0
0
0
0
0
0
0
0
0
0
0
0
0
0
0
0
0
0
0
0
0
0
0
0
0
0
0
0
0
0
0
0
0
0
0
0
0
0
0
0
0
0
0
0
0
0
0
0
0
0
0
0
0
0
0
0
0
0
0
0
0
0
0
0
0
0
0
0
0
0
0
0
0
0
0
0
0
0
0
0
0
0
0
0
0
0
0
0
0
0
0
0
0
0
0
0
0
0
0
0
0
0
0
0
0
0
0
0
0
0
0
0
0
0
0
0
0
0
0
0
0
0
0
0
0
0
0
0
0
0
0
0
0
0
0
0
0
0
0
0
0
0
0
0
0
0
0
0
0
0
0
0
0
0
0
0
0
0
0
0
0
0
0
0
0
0
0
0
0
0
0
0
0
0
0
0
0
0
0
0
0
0
0
0
0
0
0
0
0
0
0
0
0
0
0
0
0
0
0
0
0
0
0
0
0
0
0
0
0
0
0
0
0
0
0
0
0
0
0
0
0
0
0
0
0
0
0
0
0
0
0
0
0
0
0
0
0
0
0
0
0
0
0
0
0
0
0
0
0
0
0
0
0
0
0
0
0
0
0
0
0
0
0
0
0
0
0
0
0
0
0
0
0
0
0
0
0
0
0
0
0
0
0
0
0
0
0
0
0
0
0
0
0
0
0
0
0
0
0
0
0
0
0
0
0
0
0
0
0
0
0
0
0
0
0
0
0
0.35151568
0.35151568
0.37213642
0.37213642
0.37211671
0.37211671
0.8724407
0.85163089
0.87236418
0.85136566
0.37212896
0.37212896
0.38610697
0.38595347
0.87234862
0.87216376
0.8813618
0.38610149
0.38596828
0.87233823
0.87218115
0.37072778
0.34919649
0.36864087
0.36710063
0.36710063
0.98407898
0.97822124
0.98407897
0.97822121
0.34919648
0.36864087
0.37182282
0.37182223
0.3721338
0.3721338
0.98465955
0.98465828
0.98465956
0.98465839
0.37182218
0.3718173
0.37017948
0.38460783
0.37136103
0.37136103
0.99876224
0.87135872
0.99878589
0.98439024
0.98463366
0.99868453
0.8677193
0.99780786
0.99876207
0.87117689
0.99878583
0.98439023
0.98463366
0.99868434
0.86750138
0.99780739
0.38607885
0.99994134
0.38607388
0.37057403
0.99985646
0.38544763
0.37182022
0.37182191
0.38524608
0.37213258
0.37213258
0.38598668
0.38595781
0.99878626
0.87220297
0.99878672
0.98466036
0.98464847
0.99878618
0.87217171
0.99878611
0.8950435
0.38604271
0.38601274
0.9987863
0.87226648
0.99878669
0.98466037
0.98464848
0.99878622
0.87223419
0.38541518
0.38215134
0.37208007
0.37207833
0.37207714
0.34947841
0.36889853
0.37043512
0.99795811
0.99865428
0.99883347
0.82982962
0.85003931
0.85659752
0.38607892
0.38607559
0.99994134
0.99994135
0.37057403
0.38222704
0.99985646
0.99994019
0.37208005
0.37207832
0.34947841
0.36889853
0.99795811
0.99865428
0.99883347
0.82984321
0.9988571
0.85659627
0.35948261
0.35948261
0.37229899
0.36825337
0.37229899
0.36825337
0.37213439
0.37213438
0.3846028
0.38460306
0.38460164
0.74338739
0.37185806
0.37185806
0.98521467
0.87240515
0.38465727
0.98095681
0.85951619
0.9851879
0.87227824
0.98518836
0.38465727
0.38465041
0.98090276
0.85927011
0.74342437
0.83494803
0.82499011
0.85436539
0.85439128
0.83494803
0.82499011
0.85436539
0.85439129
0.37213098
0.37213098
0.41050584
0.38603403
0.38595053
0.41054873
0.98517524
0.87226472
0.38463661
0.38464351
0.98515144
0.87215958
0.41049466
0.38613783
0.3768851
0.38607306
0.41055102
0.38598858
0.98517649
0.87230515
0.98518154
0.38463662
0.98515833
0.87220406
0.98515552
0.88633264
0.37668782
0.39420319
0.99999995
0.99999791
0.99999792
0.99999994
0.99999792
0.99999994
0.85431956
0.8543179
0.85436524
0.85438047
0.74226165
0.7123088
0.74231411
0.74227883
0.99999966
0.99999237
0.99999485
0.99999978
0.99999792
0.99999994
0.9999979
0.99999995
0.99999786
0.99999786
0.9988573
0.98487386
0.99999786
0.99999786
0.98487243
0.99885723
0.99999389
0.99999122
0.99786189
0.97874632
0.99999786
0.99999786
0.98487041
0.99885711
0.98481692
0.998856
0.99999995
0.99999791
0.99999792
0.99999994
0.85431991
0.85431821
0.85436526
0.85438048
0.74226165
0.7123088
0.74231412
0.74227905
0.99999966
0.99999237
0.99999792
0.99999994
0.9999979
0.99999995
0.99999786
0.99999786
0.9988573
0.98487386
0.98487381
0.9988573
0.99999786
0.99999786
0.98487243
0.99885723
0.98487311
0.99885726
0.99999389
0.99999122
0.99786189
0.97874632
0.9982275
0.99999786
0.99999786
0.98487041
0.99885711
0.98481692
0.998856
0.71053367
0.35674728
0.36597083
0.36330872
0.36308965
0.36308965
0.86348776
0.98263309
0.86825653
0.37939132
0.85390414
0.97991941
0.86348776
0.98263308
0.37939132
0.38298639
0.85390414
0.97991939
0.73535543
0.34888177
0.34888177
0.35378638
0.72927954
0.36597082
0.36330872
0.98486059
0.98486047
0.87202576
0.99885511
0.98294221
0.984288
0.85091105
0.99787909
0.74198525
0.37182265
0.74198967
0.37182237
0.37213423
0.37213422
0.87036729
0.98465886
0.87037297
0.38460624
0.9846584
0.87036734
0.98465888
0.870373
0.38460627
0.38461128
0.87036379
0.98465853
0.37125391
0.37125261
1
0.99999995
1
0.99999995
1
0.99999994
1
0.99999986
0.98486059
0.98486047
0.87202575
0.99885511
0.98294221
0.984288
0.85091105
0.99787909
0.3712528
1
0.99999995
1
0.99999995
1
1
0.99999994
1
0.99999986
0.99999999
0.37182253
0.37016305
0.74198978
0.3718223
0.37016749
0.37126801
0.37021078
0.37072079
0.38481164
0.37161045
0.37161045
0.99883291
0.99878355
0.99879242
0.38361077
0.98517991
0.87230472
0.98470324
0.99878496
0.86877889
0.86973824
0.98453751
0.384096
0.38353477
0.98460226
0.99856552
0.98369978
0.86458723
0.9842595
0.3664599
0.3723915
0.38036705
0.99809453
0.99883023
0.99878341
0.99878916
0.38361146
0.38359753
0.98514757
0.87215272
0.98466523
0.99878486
0.86973824
0.98453751
0.384096
0.87036318
0.98460225
0.99856137
0.98365532
0.86435794
0.98421846
0.3664606
0.38036783
0.99808892
0.37069553
0.37065239
0.7406148
0.37128511
0.71138821
0.82897127
0.84705083
0.85047895
0.364975
0.38035695
0.382805
0.85681493
0.85304543
0.85176219
0.38116144
0.35100182
0.35610272
0.36874437
0.38102487
0.37069554
0.7406148
0.71138821
0.84705083
0.85047895
0.85135367
0.38035695
0.382805
0.85681493
0.85304543
0.85176219
0.85520831
0.35100182
0.35610272
0.36875587
0.38440514
0.37072078
0.36948353
0.38607958
0.38608002
0.98486014
0.98486038
0.87201192
0.99885486
0.87202255
0.99994135
0.98465953
0.98447109
0.87105061
0.37650224
0.37920523
0.99994057
0.74202304
0.37182135
0.37182163
0.38524665
0.38524258
0.37213178
0.37213178
0.3860119
0.41053413
0.38595416
0.99883173
0.99878645
0.86968694
0.38359817
0.38358682
0.98516562
0.87223419
0.98515919
0.99878659
0.38356921
0.87038077
0.98465672
0.87037694
0.3846221
0.38461448
0.87039107
0.9846526
0.99883087
0.99878613
0.98515406
0.87216568
0.98515663
0.86963646
0.38355601
0.99883072
0.99878612
0.89921647
0.8912057
0.40670995
0.3860606
0.41055597
0.38600066
0.99883228
0.99878647
0.98517188
0.87228861
0.98516733
0.38359882
0.99883284
0.99878658
0.86965293
0.87038079
0.98465672
0.87037697
0.38462211
0.9846526
0.99883158
0.98516235
0.87221979
0.98516484
0.38355646
0.99878614
0.86964537
0.89927911
0.89399845
0.40813666
0.37041113
0.37041071
0.74248981
0.37207868
0.74249264
0.37207849
0.99999791
0.99999995
0.99999995
0.74253292
0.37045489
0.37043565
0.74251375
0.37207809
0.99999792
0.99999994
0.99999994
0.37073093
0.3712903
0.37130165
0.85682621
0.85432416
0.8543326
0.38273884
0.85682682
0.38279503
0.85682581
0.85434421
0.8543384
0.37069309
0.37036513
0.74182914
0.73092874
0.34787341
0.35543052
0.87109708
0.98464581
0.87186549
0.98483213
0.8720312
0.38367949
0.37877301
0.99984646
0.99797403
0.99876047
0.99848473
0.99992322
0.99994156
0.86895591
0.98410259
0.86291235
0.98269816
0.85160365
0.74229808
0.74228348
0.9848882
0.87210264
0.87209476
0.98488567
0.38613102
0.38613148
0.9848883
0.87210393
0.98488843
0.87210497
0.35405113
0.34857535
0.71107087
0.35701974
0.36623239
0.99999688
0.99999993
0.99999591
0.99999991
0.74197279
0.3704541
0.99999786
0.99999994
0.99999788
0.99999994
0.99999786
0.99999786
0.99999786
0.99994149
0.98487369
0.99885729
0.98487378
0.99885729
0.99994149
0.99999786
0.99999786
0.99994149
0.98487344
0.99885728
0.38504213
0.38503259
0.87195842
0.87057752
0.98487569
0.98449638
0.99833282
0.99849321
0.99885426
0.99885158
0.865269
0.86940794
0.36980981
0.97845991
0.38407215
0.38289521
0.38182374
0.85300008
0.37462767
0.85744898
0.3835263
0.38148809
0.86522785
0.87051517
0.87098843
0.3776238
0.38089784
0.8268252
0.84991228
0.87223677
0.87223829
0.98487981
0.38627205
0.9988571
0.87223919
0.87223869
0.98487996
0.38301183
0.38299963
0.8545579
0.38601162
0.38601262
0.38299253
0.38299645
0.85454385
0.99999688
0.99999736
0.99985609
0.9999968
0.9999248
0.98355709
0.99873944
0.98245945
0.99863213
0.99994149
0.99999786
0.99999769
0.99999753
0.99999779
0.98464691
0.99878794
1
0.99999994
1
0.99999995
0.38607776
0.38607625
0.99994134
0.99994134
0.98486014
0.98486038
0.87201192
0.99885486
0.87202254
0.98465953
0.98447109
0.37650224
0.37920523
0.99989316
0.99990824
0.37041185
0.37041079
0.7424905
0.37207865
0.37207848
0.99999791
0.99999995
0.99999791
0.99999995
0.74253293
0.74254967
0.3704549
0.37043563
0.74251372
0.37207809
0.99999792
0.99999994
0.99999792
0.99999994
0.37073095
0.74340166
0.37129031
0.37130165
0.74255018
0.74254969
0.85432424
0.85433265
0.85682681
0.3706932
0.85682581
0.85434424
0.85433845
0.85682593
0.37036513
0.74182914
0.37016683
0.73092874
0.87109708
0.98464581
0.98483212
0.87186549
0.37498804
0.38367949
0.99984646
0.99797403
0.99993211
0.99848473
0.99992322
0.99994013
0.86895591
0.98410259
0.86291235
0.98269816
0.7422981
0.74228353
0.9848882
0.87210262
0.87209935
0.98488566
0.38613228
0.386131
0.98488829
0.8721039
0.87210446
0.98488841
0.87210493
0.35405113
0.71107087
0.35701974
0.36356267
0.72979506
0.36623239
0.99999688
0.99999993
0.74197279
0.3704541
0.99999786
0.99999994
0.99999786
0.99999786
0.99999786
0.98487368
0.99885729
0.98487378
0.99885729
0.99994149
0.99999786
0.99999786
0.99999786
0.99999786
0.98487344
0.99885728
0.99885728
0.38503541
0.87195837
0.87057746
0.38497212
0.98449637
0.99833281
0.99849321
0.86526891
0.86940787
0.36980969
0.38289523
0.38182379
0.8546
0.85300084
0.84029836
0.37462767
0.87146773
0.87051517
0.87098843
0.3776239
0.38089791
0.82682748
0.87223675
0.87223827
0.98487703
0.98487981
0.9988571
0.87223916
0.87223866
0.38301181
0.38299963
0.85459363
0.38601326
0.38601157
0.85659546
0.38299258
0.38299646
0.85454399
0.85455291
0.99999688
0.99999736
0.99985609
0.9999968
0.9999248
0.98355709
0.99873944
0.99994149
0.99999769
0.99999753
0.9846469
0.99878794
1
0.99999994
0.99999994
1
0.99999995
0.99999994
0.74202305
0.3718216
0.70039745
0.70039745
0.74338721
0.89940873
0.8994569
0.87866704
0.74342437
0.89942245
0.89947033
0.386182
0.37093877
0.39689785
0.41055037
0.89946855
0.89947207
0.38612088
0.41054467
0.74343061
0.74343062
0.36895616
0.38123166
0.73535543
0.36895616
0.38123166
0.38607748
0.87202435
0.99994134
0.9988551
0.38222704
0.86766794
0.99992402
0.99877419
0.38524714
0.37182274
0.74339792
0.87202434
0.99994134
0.9988551
0.86766794
0.99992402
0.99877419
0.74339795
0.38524607
0.38522865
0.89844904
0.8985104
0.37181729
0.37017947
0.89646996
0.36955133
0.73731673
0.70081816
0.85135367
0.85520831
0.74239376
0.85658282
0.38502022
0.85557732
0.38440098
0.73731673
0.70081816
0.82897127
0.364975
0.74053189
0.37169822
0.38522865
0.38116144
0.85004728
0.38103297
0.8565831
0.38502041
0.8555822
0.38460783
0.38606741
0.99994135
0.99994135
0.9988551
0.38605537
0.87199584
0.99994134
0.99885466
0.99994019
0.99881039
0.38524038
0.38524454
0.41053905
0.89945555
0.89946039
0.3855621
0.38233153
0.40969115
0.41055283
0.89947871
0.37182021
0.37182188
0.99878612
0.89947526
0.40975264
0.37207818
0.74340164
0.37185404
0.74255141
0.74254894
0.38275186
0.85682594
0.382757
0.37185322
0.37177536
0.37120187
0.99993211
0.38606599
0.38534567
0.99993727
0.99885858
0.99885858
0.38613279
0.38612672
0.38613057
0.99885853
0.99994156
0.3720684
0.99885711
0.99994149
0.99999786
0.9988571
0.99885709
0.99999786
0.99999786
0.99885709
0.85659721
0.38504206
0.85659453
0.85659676
0.3850385
0.99885702
0.38624805
0.38497218
0.98406278
0.85459992
0.84978835
0.36903987
0.86827119
0.87195221
0.3859954
0.98487704
0.38625524
0.38627614
0.98487985
0.38627241
0.85459377
0.38601383
0.85455329
0.99999198
0.99994009
1
0.99994147
1
1
0.9999979
0.99999999
1
1
0.9999979
0.99994013
0.38606741
0.99994135
0.38607387
0.9988551
0.38605537
0.87199584
0.99994134
0.99885466
0.38544763
0.87105061
0.99881039
0.37207714
0.37207817
0.74255153
0.74254887
0.38524713
0.85682623
0.38273911
0.38275191
0.7425063
0.37177535
0.38279504
0.38275704
0.37120187
0.99876047
0.99994156
0.99883158
0.99993727
0.99994156
0.99885858
0.99885858
0.38613275
0.99994156
0.99885853
0.99885857
0.3720684
0.37043512
0.99885711
0.99994149
0.99999786
0.99994149
0.99885709
0.99994149
0.3850405
0.85659406
0.38503761
0.85659308
0.38503127
0.85659329
0.38624803
0.99885702
0.98487568
0.97845989
0.38407208
0.98406277
0.84978835
0.36903987
0.3835263
0.86827119
0.8719522
0.84991352
0.38625522
0.99885709
0.38627203
0.98487996
0.38627621
0.98487985
0.38627238
0.8545575
0.38601368
0.38600317
0.99999198
0.99999786
0.99999779
0.99994009
0.99999791
0.99999791
0.99994147
1
0.9999979
0.9999979
0.99999999
1
0.99999163
0.99992474
1
1
0.9999979
0.99999768
0.38524037
0.38524453
0.35378639
0.69750024
0.35640881
0.71589142
0.71589142
0.35640881
0.71053366
0.3701626
0.74198361
0.37016079
0.3846014
0.7433883
0.74338851
0.37125413
0.74198558
0.74147879
0.3702104
0.98520492
0.97500701
0.86970371
0.89931078
0.97498346
0.38465041
0.88767003
0.97877356
0.96524793
0.84724389
0.96858826
0.97500489
0.86970412
0.89936995
0.97498379
0.86967436
0.97871333
0.96524858
0.84724533
0.96858863
0.85532769
0.74314137
0.37130826
0.74314137
0.37128511
0.37130826
0.74147879
0.37021079
0.3702017
0.41051709
0.41054708
0.98518718
0.97500538
0.89943625
0.97500543
0.89946859
0.98515282
0.97500206
0.97500245
0.41040431
0.40201669
0.41055502
0.89947788
0.41055238
0.89947442
0.97500596
0.86968725
0.97500879
0.86967334
0.38464351
0.97500206
0.86963681
0.97500275
0.86963995
0.38603578
0.410463
0.40067945
0.99999791
0.99999995
0.74342128
0.74233411
0.3703838
0.37189652
0.69720496
0.34933155
0.35687828
0.74232613
0.37037344
0.37195268
0.37035885
0.37195526
0.74227789
0.37195727
0.3703216
0.37195723
0.98487382
0.9988573
0.98487312
0.99885726
0.98115048
0.9982275
0.99999791
0.99999995
0.99999792
0.99999994
0.74342129
0.74233411
0.37195031
0.3703838
0.37189652
0.69720496
0.34787341
0.35543052
0.74232613
0.37035886
0.37195526
0.74227808
0.37032081
0.99999485
0.99999978
0.98115048
0.37020172
0.74202628
0.72927955
0.34830375
0.37521514
0.73669384
0.36805433
0.3780593
0.38298639
0.84838272
0.86825653
0.35674727
0.84838272
0.36559524
0.72868489
0.3682548
0.34981634
0.35528548
0.36955133
0.72868489
0.36559524
0.3682548
0.34981634
0.35528548
0.73669383
0.36805433
0.69750022
0.34830375
0.37521514
0.3780593
0.87202543
0.98486064
0.99885511
0.99994134
0.98486064
0.87202513
0.9988551
0.99994134
0.85830167
0.98006596
0.99816465
0.99989316
0.97835242
0.86347551
0.99858418
0.99990824
0.3701673
0.38524687
0.74199666
0.37017444
0.38461126
0.87036342
0.8703619
0.87036225
0.37125728
0.74339151
0.37126411
0.37185585
1
1
1
0.99999995
0.99999791
1
1
0.99999791
0.99999791
0.99999995
0.99999999
1
0.99999999
0.9999997
0.99999163
1
1
0.99999744
0.99999691
0.99999978
0.87202541
0.98486064
0.99885511
0.98486063
0.87202512
0.9988551
0.85830167
0.97835242
0.99816465
0.98006596
0.86347551
0.99858418
0.371854
0.37126415
0.37185494
0.74339156
0.37125733
0.37185567
1
1
1
0.99999995
0.99999791
0.99999995
1
1
1
0.99999999
1
0.9999997
0.99999412
1
0.99999744
0.99999978
0.37017457
0.74198387
0.37016113
0.74199675
0.38524664
0.74020432
0.36948353
0.7420277
0.38501489
0.73893835
0.36876024
0.38285853
0.38359682
0.8696738
0.99883596
0.97467825
0.86949934
0.97494951
0.99883478
0.38344115
0.86904857
0.87036318
0.87038673
0.9983813
0.99808307
0.99874742
0.86520035
0.97316684
0.970727
0.85532642
0.3783231
0.86220717
0.99779742
0.38285929
0.99883395
0.8687797
0.97467817
0.97494954
0.99883355
0.38344187
0.86949999
0.86904857
0.38353477
0.371268
0.87038673
0.99838104
0.99808269
0.99874392
0.86520142
0.9731669
0.97072721
0.37239224
0.37832388
0.86220836
0.99779098
0.36988911
0.74053189
0.74184003
0.37195031
0.37060217
0.37064278
0.7418632
0.37025516
0.36925498
0.37169823
0.36480291
0.72600654
0.83922893
0.37093424
0.84688717
0.37822296
0.38279269
0.85658731
0.85589059
0.38196593
0.37123787
0.74219666
0.37154428
0.3677654
0.36120363
0.36795226
0.37500641
0.84028712
0.37785159
0.84499917
0.38480664
0.85632356
0.38460381
0.36988911
0.74184003
0.37065239
0.74239376
0.37060217
0.37166231
0.37064278
0.36925498
0.7418632
0.37025516
0.37154427
0.36480291
0.72600654
0.83922893
0.37093424
0.84688717
0.37822296
0.37123787
0.74219666
0.38279269
0.85658731
0.85589059
0.38481164
0.38196593
0.3677654
0.34933155
0.35687828
0.36120363
0.375016
0.37786134
0.84500903
0.38480884
0.38460699
0.85607887
0.74020431
0.7420277
0.37021041
0.38501489
0.73893834
0.36876024
0.87201984
0.98485976
0.38607176
0.99885507
0.99994135
0.9848567
0.87202126
0.38607282
0.99885508
0.87178499
0.98485088
0.38584652
0.99885409
0.99994096
0.98485379
0.87141645
0.38564641
0.99883214
0.74200982
0.37018819
0.74202627
0.37020605
0.74200094
0.37017903
0.38524356
0.41052982
0.89945143
0.4105433
0.89946468
0.99883125
0.8696731
0.998833
0.86965274
0.97500495
0.9750067
0.99883402
0.38357698
0.86966207
0.87039375
0.99883106
0.38356354
0.38356115
0.86964516
0.97500296
0.97500266
0.38355854
0.86963948
0.86964243
0.99883087
0.38606944
0.37960831
0.41032516
0.40436278
0.41055903
0.41055275
0.99883195
0.38356973
0.89948193
0.97500594
0.97500765
0.38358742
0.99883325
0.38357752
0.86966227
0.38461451
0.87039107
0.37182133
0.87039375
0.99878617
0.99883176
0.38356403
0.89947503
0.97500377
0.97500331
0.38355923
0.9988312
0.99883099
0.38356163
0.86964266
0.38594725
0.37941957
0.41038768
0.40715572
0.37207803
0.37033296
0.37041415
0.74248948
0.37042092
0.74249925
0.99999791
0.99994156
0.99994156
1
0.37042517
0.74250335
0.74254967
0.37047253
0.99994156
0.99994156
0.99999792
1
1
0.37032062
0.37070318
0.7425564
0.74254244
0.37072319
0.74250629
0.74252436
0.37071544
0.37195758
0.371827
0.74340578
0.371274
0.37126906
0.37185503
0.74255006
0.37185571
0.74254972
0.85682613
0.3827403
0.85682643
0.38274438
0.38278116
0.85682666
0.85682562
0.38276215
0.37180118
0.37069736
0.37069503
0.370694
0.73796095
0.36971589
0.36824507
0.37166231
0.37016683
0.73444485
0.36649259
0.36618863
0.36474011
0.38600593
0.98488223
0.99885727
0.87196726
0.98487692
0.99883158
0.37498804
0.9982268
0.99988297
0.38594727
0.99885461
0.99994013
0.99885197
0.9999387
0.97852205
0.98021672
0.85686461
0.74229054
0.37034031
0.37195777
0.74228701
0.37032956
0.37195745
0.37032616
0.37195732
0.87209936
0.9848873
0.87209703
0.98488646
0.99885854
0.99885857
0.99885855
0.99994156
0.99885858
0.99994156
0.99885858
0.38613229
0.38612745
0.38612856
0.99994156
0.98488837
0.8721045
0.98488841
0.87210476
0.37151869
0.37097691
0.36356267
0.72979506
0.69805376
0.36830552
0.73720405
1
1
0.3697197
0.74069661
0.7425498
0.3704814
0.36901261
0.73944773
1
1
0.99999786
0.99994149
0.99999786
0.99994149
0.9988571
0.99994147
0.87197374
0.87197332
0.87197139
0.87197246
0.99994147
0.99994149
0.99885709
0.99999786
0.99999786
0.99994149
0.87196023
0.871965
0.98487328
0.99885728
0.99994147
0.87196883
0.99994147
0.99994147
0.3850424
0.85659788
0.38504282
0.856598
0.38503565
0.38503707
0.98486952
0.87218575
0.38622733
0.87221025
0.38604301
0.98482419
0.37382668
0.85565293
0.85017579
0.98026065
0.38095785
0.98289185
0.85455872
0.38303732
0.3830418
0.85436659
0.85607519
0.3847138
0.38556368
0.87146773
0.38513572
0.83532556
0.37004485
0.36573995
0.84477137
0.98487831
0.87221872
0.38626243
0.87222718
0.98487968
0.99885709
0.38627066
0.98487996
0.87223976
0.38627509
0.87223974
0.9848799
0.38627286
0.85458661
0.38302634
0.85659591
0.38600318
0.38303183
0.38600897
0.38600997
0.85457124
0.85659648
0.38601345
0.87196692
0.3860098
0.38298818
0.85454445
0.38298798
0.85454909
0.9999946
0.99989275
0.9999958
0.99990957
0.99985597
0.99992474
0.99990949
0.99994113
0.99999784
0.99999782
0.99994061
0.99994147
0.99994102
0.98473158
0.99882165
1
1
1
0.99999791
0.99994147
1
0.99999994
1
1
0.99999994
0.99999994
0.9999979
1
0.9999979
0.9999979
1
1
1
0.99994147
1
0.99999995
1
1
0.99999994
0.99999994
0.99999783
1
0.99999768
0.99999775
1
1
0.99999412
0.99989266
1
1
1
0.99994058
0.87201984
0.98485976
0.38607176
0.99885507
0.99994135
0.9848567
0.87202126
0.38607282
0.99885508
0.99994135
0.87178499
0.98485088
0.38584652
0.99885409
0.99994096
0.98485379
0.87141645
0.38564641
0.99883214
0.99994057
0.37037345
0.37207802
0.37033299
0.37041473
0.74249321
0.37042083
0.74248953
0.74249915
1
1
0.99994156
0.99994156
1
1
0.37032182
0.37047253
0.37042512
0.74250329
1
1
0.99994156
0.99994156
1
0.37070328
0.74255647
0.37071548
0.74254246
0.37072322
0.37195268
0.37195758
0.37195778
0.37185319
0.7434058
0.37127402
0.37126909
0.37180116
0.37185547
0.85682615
0.38524685
0.38274061
0.38274445
0.85682642
0.37182698
0.74252438
0.37069754
0.37069525
0.37069422
0.37195727
0.37195723
0.37195745
0.38278117
0.85682666
0.38276217
0.85682562
0.38524355
0.73796095
0.36971589
0.36824507
0.73444485
0.36795226
0.36649259
0.36618863
0.36474011
0.98488223
0.99885727
0.99885461
0.8720312
0.38606597
0.38534567
0.38594727
0.98487692
0.87196725
0.37877301
0.9982268
0.99988297
0.99885197
0.9999387
0.38600593
0.85160365
0.85686461
0.97852205
0.98021672
0.74229058
0.37034033
0.74228705
0.3703296
0.37032621
0.37195732
0.9848873
0.87209475
0.38612668
0.38612739
0.38613049
0.98488646
0.87209702
0.99994156
0.99885858
0.99885858
0.38613154
0.98488835
0.98488838
0.8721047
0.99994156
0.99885854
0.99885855
0.38612849
0.37151869
0.37097691
0.34857535
0.69805376
0.36830552
0.73720405
0.99999591
0.99999991
1
1
0.3697197
0.74069661
0.74254981
0.37048141
0.36901261
0.73944773
0.99999788
0.99999994
1
1
0.99999786
0.99994149
0.9988571
0.99999786
0.99994149
0.99994147
0.87197361
0.87197315
0.87197135
0.87197241
0.99994149
0.99999786
0.99999786
0.99994149
0.99885709
0.87196023
0.98487328
0.99994147
0.87196881
0.8719669
0.99994147
0.38503945
0.38503881
0.85659504
0.38503341
0.85659342
0.38503441
0.8565935
0.38622731
0.98486952
0.87218572
0.99885426
0.87221022
0.38604297
0.98482418
0.99885158
0.37382657
0.85565281
0.98026063
0.85017566
0.38095777
0.98289183
0.38599539
0.85455909
0.3830418
0.85632613
0.38303731
0.85436711
0.3847138
0.85744898
0.38148809
0.86522785
0.38556368
0.38513572
0.37004501
0.83532738
0.36574014
0.84477288
0.38626241
0.87222716
0.98487831
0.99885709
0.87221869
0.98487968
0.38627063
0.98487995
0.87223969
0.38627515
0.87223972
0.9848799
0.38627283
0.38303182
0.38600895
0.85458633
0.38302632
0.38600994
0.38600979
0.8545709
0.38601255
0.38298845
0.85454446
0.38298821
0.8545488
0.87196499
0.9999946
0.99989275
0.9999958
0.99990957
0.99985597
0.98245945
0.99863213
0.99994113
0.99999784
0.99999782
0.99994061
0.99994147
0.99994102
0.98473158
0.99882165
0.99994013
0.99994147
0.99999791
0.99994147
1
0.99999994
1
1
1
0.9999979
1
0.99999994
1
1
0.99994147
0.9999979
0.99994147
1
0.99999995
1
1
1
0.99999775
1
0.99999994
1
0.99989266
0.99999691
0.99990949
1
1
0.99999783
0.99994058
0.74200986
0.37018826
0.37020607
0.38524258
0.74200101
0.37017913
)
;
    }
}


// ************************************************************************* //
