/*--------------------------------*- C++ -*----------------------------------*\
| =========                 |                                                 |
| \\      /  F ield         | OpenFOAM: The Open Source CFD Toolbox           |
|  \\    /   O peration     | Version:  2406                                  |
|   \\  /    A nd           | Website:  www.openfoam.com                      |
|    \\/     M anipulation  |                                                 |
\*---------------------------------------------------------------------------*/
FoamFile
{
    version     2.0;
    format      ascii;
    arch        "LSB;label=32;scalar=64";
    class       volScalarField;
    location    "0";
    object      thickness;
}
// * * * * * * * * * * * * * * * * * * * * * * * * * * * * * * * * * * * * * //

dimensions      [0 0 0 0 0 0 0];

internalField   uniform 0;

boundaryField
{
    minX
    {
        type            fixedValue;
        value           uniform 0;
    }
    maxX
    {
        type            fixedValue;
        value           uniform 0;
    }
    minY
    {
        type            fixedValue;
        value           uniform 0;
    }
    maxY
    {
        type            fixedValue;
        value           uniform 0;
    }
    front
    {
        type            empty;
    }
    back
    {
        type            empty;
    }
    stlSurface
    {
        type            fixedValue;
        value           nonuniform List<scalar> 
3072
(
0
0
0
0
0
0
0
0
0
0
0
0
0
0
0
0
0
0
0
0
0
0
0
0
0
0
0
0
0
0
0
0
0
0
0
0
0
0
0
0
0
0
0
0
0
0
0
0
0
0
0
0
0
0
0
0
0
0
0
0
0
0
0
0
0
0
0
0
0
0
0
0
0
0
0
0
0
0
0
0
0
0
0
0
0
0
0
0
0
0
0
0
0
0
0
0
0
0
0
0
0
0
0
0
0
0
0
0
0
0
0
0
0
0
0
0
0
0
0
0
0
0
0
0
0
0
0
0
0
0
0
0
0
0
0
0
0
0
0
0
0
0
0
0
0
0
0
0
0
0
0
0
0
0
0
0
0
0
0
0
0
0
0
0
0
0
0
0
0
0
0
0
0
0
0
0
0
0
0
0
0
0
0
0
0
0
0
0
0
0
0
0
0
0
0
0
0
0
0
0
0
0
0
0
0
0
0
0
0
0
0
0
0
0
0
0
0
0
0
0
0
0
0
0
0
0
0
0
0
0
0
0
0
0
0
0
0
0
0
0
0
0
0
0
0
0
0
0
0
0
0
0
0
0
0
0
0
0
0
0
0
0
0
0
0
0
0
0
0
0
0
0
0
0
0
0
0
0
0
0
0
0
0
0
0
0
0
0
0
0
0
0
0
0
0
0
0
0
0
0
0
0
0
0
0
0
0
0
0
0
0
0
0
0
0
0
0
0
0
0
0
0
0
0
0
0
0
0
0
0
0
0
0
0
0
0
0
0
0
0
0
0
0
0
0
0
0
0
0
0
0
0
0
0
0
0
0
0
0
0
0
0
0
0
0
0
0
0
0
0
0
0
0
0
0
0
0
0
0
0
0
0
0
0
0
0
0
0
0
0
0
0
0
0
0
0
0
0
0
0
0
0
0
0
0
0
0
0
0
0
0
0
0
0
0
0
0
0
0
0
0
0
0
0
0
0
0
0
0
0
0
0
0
0
0
0
0
0
0
0
0
0
0
0
0
0
0
0
0
0
0
0
0
0
0
0
0
0
0
0
0
0
0
0
0
0
0
0
0
0
0
0
0
0
0
0
0
0
0
0
0
0
0
0
0
0
0
0
0
0
0
0
0
0
0
0
0
0
0
0
0
0
0
0
0
0
0
0
0
0
0
0
0
0
0
0
0
0
0
0
0
0
0
0
0
0
0
0
0
0
0
0
0
0
0
0
0
0
0
0
0
0
0
0
0
0
0
0
0
0
0
0
0
0
0
0
0
0
0
0
0
0
0
0
0
0
0
0
0
0
0
0
0
0
0
0
0
0
0
0
0
0
0
0
0
0
0
0
0
0
0
0
0
0
0
0
0
0
0
0
0
0
0
0
0
0
0
0
0
0
0
0
0
0
0
0
0
0
0
0
0
0
0
0
0
0
0
0
0
0
0
0
0
0
0
0
0
0
0
0
0
0
0
0
0
0
0
0
0
0
0
0
0
0
0
0
0
0
0
0
0
0
0
0
0
0
0
0
0
0
0
0
0
0
0
0
0
0
0
0
0
0
0
0
0
0
0
0
0
0
0
0
0
0
0
0
0
0
0
0
0
0
0
0
0
0
0
0
0
0
0
0
0
0
0
0
0
0
0
0
0
0
0
0
0
0
0
0
0
0
0
0
0
0
0
0
0
0
0
0
0
0
0
0
0
0
0
0
0
0
0
0
0
0
0
0
0
0
0
0
0
0
0
0
0
0
0
0
0
0
0
0
0
0
0
0
0
0
0
0
0
0
0
0
0
0
0
0
0
0
0
0
0
0
0
0
0
0
0
0
0
0
0
0
0
0
0
0
0
0
0
0
0
0
0
0
0
0
0
0
0
0
0
0
0
0
0
0
0
0
0
0
0
0
0
0
0
0
0
0
0
0
0
0
0
0
0
0
0
0
0
0
0
0
0
0
0
0
0
0
0
0
0
0
0
0
0
0
0
0
0
0
0
0
0
0
0
0
0
0
0
0
0
0
0
0
0
0
0
0
0
0
0
0
0
0
0
0
0
0
0
0
0
0
0
0
0
0
0
0
0
0
0
0
0
0
0
0
0
0
0
0
0
0
0
0
0
0
0
0
0
0
0
0
0
0
0
0
0
0
0
0
0
0
0
0
0
0
0
0
0
0
0
0
0
0
0
0
0
0
0
0
0
0
0
0
0
0
0
0
0
0
0
0
0
0
0
0
0
0
0
0
0
0
0
0
0
0
0
0
0
0
0.00021386446
0.00021386446
0.00022641026
0.00022641026
0.00022639827
0.00022639827
0.00053079869
0.00051813787
0.00053075213
0.0005179765
0.00022640572
0.00022640572
0.00023491003
0.00023481664
0.00053074267
0.0005306302
0.00053622634
0.0002349067
0.00023482565
0.00053073635
0.00053064078
0.00022555323
0.00021245345
0.00022428354
0.00022334645
0.00022334645
0.00059872016
0.00059515627
0.00059872015
0.00059515625
0.00021245345
0.00022428354
0.00022621946
0.0002262191
0.00022640867
0.00022640866
0.00059907338
0.00059907261
0.00059907339
0.00059907267
0.00022621907
0.0002262161
0.00022521964
0.00023399795
0.0002259385
0.0002259385
0.00060765355
0.00053014041
0.00060766794
0.00059890953
0.00059905763
0.00060760627
0.00052792616
0.0006070729
0.00060765345
0.00053002978
0.0006076679
0.00059890953
0.00059905763
0.00060760615
0.00052779357
0.00060707262
0.00023489293
0.00060837092
0.0002348899
0.00022545969
0.00060831928
0.00023450889
0.00022621788
0.00022621891
0.00023438626
0.00022640792
0.00022640792
0.00023483685
0.00023481928
0.00060766816
0.00053065405
0.00060766844
0.00059907388
0.00059906664
0.00060766811
0.00053063504
0.00060766807
0.00054455038
0.00023487094
0.0002348527
0.00060766819
0.00053069269
0.00060766843
0.00059907388
0.00059906664
0.00060766814
0.00053067305
0.00023448914
0.0002325034
0.00022637597
0.00022637492
0.00022637419
0.00021262498
0.0002244403
0.00022537517
0.00060716431
0.00060758787
0.00060769689
0.00050487383
0.00051716953
0.0005211596
0.00023489297
0.00023489094
0.00060837092
0.00060837093
0.00022545969
0.00023254946
0.00060831928
0.00060837022
0.00022637596
0.00022637491
0.00021262498
0.0002244403
0.00060716431
0.00060758787
0.00060769689
0.0005048821
0.00060771126
0.00052115883
0.00021871159
0.00021871159
0.00022650917
0.00022404779
0.00022650917
0.00022404779
0.00022640903
0.00022640902
0.00023399489
0.00023399504
0.00023399418
0.0004522818
0.0002262409
0.0002262409
0.00059941112
0.00053077706
0.00023402803
0.00059682061
0.00052293534
0.00059939483
0.00053069985
0.00059939511
0.00023402803
0.00023402385
0.00059678773
0.00052278562
0.0004523043
0.0005079879
0.00050192944
0.00051980155
0.00051981731
0.0005079879
0.00050192944
0.00051980155
0.00051981731
0.00022640695
0.00022640695
0.00024975447
0.00023486566
0.00023481485
0.00024978056
0.00059938713
0.00053069163
0.00023401546
0.00023401965
0.00059937265
0.00053062765
0.00024974766
0.00023492881
0.00022929939
0.0002348894
0.00024978196
0.000234838
0.00059938789
0.00053071622
0.00059939096
0.00023401546
0.00059937684
0.00053065472
0.00059937513
0.00053925064
0.00022917936
0.00023983583
0.00060840658
0.00060840534
0.00060840534
0.00060840658
0.00060840534
0.00060840658
0.00051977367
0.00051977266
0.00051980146
0.00051981073
0.0004515969
0.00043337338
0.00045162881
0.00045160735
0.0006084064
0.00060840197
0.00060840348
0.00060840648
0.00060840534
0.00060840658
0.00060840533
0.00060840658
0.00060840531
0.00060840531
0.00060771139
0.00059920377
0.00060840531
0.00060840531
0.0005992029
0.00060771134
0.00060840289
0.00060840127
0.00060710577
0.00059547573
0.00060840531
0.00060840531
0.00059920167
0.00060771127
0.00059916912
0.0006077106
0.00060840658
0.00060840534
0.00060840534
0.00060840658
0.00051977388
0.00051977285
0.00051980147
0.00051981073
0.0004515969
0.00043337338
0.00045162882
0.00045160748
0.0006084064
0.00060840197
0.00060840534
0.00060840658
0.00060840533
0.00060840658
0.00060840531
0.00060840531
0.00060771139
0.00059920377
0.00059920374
0.00060771138
0.00060840531
0.00060840531
0.0005992029
0.00060771134
0.00059920331
0.00060771136
0.00060840289
0.00060840127
0.00060710577
0.00059547573
0.00060732821
0.00060840531
0.00060840531
0.00059920167
0.00060771127
0.00059916912
0.0006077106
0.00043229338
0.00021704741
0.00022265907
0.00022103943
0.00022090614
0.00022090614
0.00052535166
0.00059784047
0.00052825301
0.00023082419
0.00051952093
0.00059618945
0.00052535166
0.00059784046
0.00023082419
0.00023301145
0.00051952093
0.00059618944
0.00044739511
0.00021226198
0.00021226198
0.00021524597
0.0004436985
0.00022265907
0.00022103943
0.0005991957
0.00059919562
0.00053054624
0.00060771005
0.00059802854
0.00059884733
0.00051769991
0.00060711624
0.00045142873
0.00022621936
0.00045143142
0.00022621919
0.00022640893
0.00022640892
0.00052953722
0.00059907296
0.00052954067
0.00023399698
0.00059907268
0.00052953725
0.00059907297
0.00052954069
0.000233997
0.00023400005
0.00052953509
0.00059907276
0.00022587333
0.00022587254
0.00060840661
0.00060840658
0.00060840661
0.00060840658
0.00060840661
0.00060840658
0.00060840661
0.00060840653
0.0005991957
0.00059919562
0.00053054623
0.00060771005
0.00059802854
0.00059884733
0.00051769991
0.00060711624
0.00022587266
0.00060840661
0.00060840658
0.00060840661
0.00060840658
0.00060840661
0.00060840661
0.00060840658
0.00060840661
0.00060840653
0.00060840661
0.00022621929
0.00022520965
0.00045143149
0.00022621914
0.00022521235
0.00022588191
0.00022523869
0.00022554898
0.00023412194
0.00022609025
0.00022609025
0.00060769654
0.00060766651
0.00060767191
0.00023339133
0.00059938997
0.00053071596
0.00059909996
0.00060766738
0.00052857082
0.0005291545
0.00059899913
0.00023368655
0.00023334509
0.00059903852
0.00060753386
0.00059848945
0.00052602059
0.00059882999
0.00022295663
0.00022656545
0.00023141783
0.00060724731
0.00060769492
0.00060766643
0.00060766993
0.00023339175
0.00023338327
0.00059937029
0.00053062348
0.00059907684
0.00060766731
0.0005291545
0.00059899913
0.00023368655
0.00052953471
0.00059903852
0.00060753134
0.0005984624
0.00052588108
0.00059880502
0.00022295705
0.0002314183
0.0006072439
0.00022553361
0.00022550736
0.00045059494
0.00022589231
0.00043281329
0.0005043516
0.00051535132
0.00051743702
0.0002220532
0.00023141168
0.00023290109
0.00052129187
0.00051899848
0.00051821775
0.00023190114
0.00021355183
0.00021665525
0.00022434651
0.00023181805
0.00022553362
0.00045059494
0.00043281329
0.00051535132
0.00051743702
0.0005179692
0.00023141168
0.00023290109
0.00052129187
0.00051899848
0.00051821775
0.00052031439
0.00021355183
0.00021665525
0.00022435351
0.00023387463
0.00022554897
0.00022479622
0.00023489337
0.00023489364
0.00059919542
0.00059919557
0.00053053782
0.0006077099
0.00053054428
0.00060837093
0.00059907337
0.00059895872
0.00052995295
0.00022906645
0.00023071097
0.00060837046
0.00045145173
0.00022621857
0.00022621874
0.00023438661
0.00023438413
0.00022640744
0.00022640744
0.00023485219
0.00024977168
0.00023481706
0.00060769583
0.00060766828
0.00052912329
0.00023338366
0.00023337676
0.00059938128
0.00053067305
0.00059937737
0.00060766837
0.00023336604
0.00052954541
0.00059907166
0.00052954308
0.00023400663
0.000234002
0.00052955168
0.00059906915
0.0006076953
0.00060766809
0.00059937424
0.00053063137
0.00059937581
0.00052909257
0.00023335801
0.00060769521
0.00060766808
0.00054708925
0.00054221544
0.00024744503
0.00023488182
0.00024978497
0.00023484535
0.00060769617
0.00060766829
0.00059938508
0.00053070616
0.00059938232
0.00023338406
0.0006076965
0.00060766836
0.00052910259
0.00052954543
0.00059907166
0.0005295431
0.00023400664
0.00059906915
0.00060769574
0.00059937929
0.00053066429
0.0005993808
0.00023335828
0.00060766809
0.00052909799
0.00054712735
0.00054391457
0.00024831304
0.00022536058
0.00022536033
0.00045173571
0.00022637513
0.00045173743
0.00022637501
0.00060840534
0.00060840658
0.00060840658
0.00045176194
0.00022538721
0.0002253755
0.00045175027
0.00022637477
0.00060840534
0.00060840658
0.00060840658
0.00022555515
0.00022589547
0.00022590238
0.00052129873
0.00051977647
0.0005197816
0.00023286084
0.0005212991
0.00023289503
0.00052129849
0.00051978867
0.00051978513
0.00022553213
0.0002253326
0.00045133376
0.00044470188
0.00021164848
0.00021624628
0.00052998122
0.00059906502
0.00053044873
0.00059917838
0.00053054955
0.00023343314
0.000230448
0.0006083132
0.000607174
0.00060765247
0.00060748471
0.0006083599
0.00060837105
0.00052867852
0.00059873452
0.00052500158
0.00059788006
0.00051812129
0.00045161906
0.00045161018
0.00059921249
0.00053059301
0.00053058822
0.00059921095
0.00023492466
0.00023492494
0.00059921255
0.0005305938
0.00059921263
0.00053059443
0.00021540705
0.00021207555
0.00043262022
0.00021721317
0.00022281821
0.00060840472
0.00060840657
0.00060840412
0.00060840656
0.00045142115
0.00022538672
0.00060840531
0.00060840657
0.00060840532
0.00060840658
0.00060840531
0.00060840531
0.00060840531
0.00060837101
0.00059920366
0.00060771138
0.00059920372
0.00060771138
0.00060837101
0.00060840531
0.00060840531
0.00060837101
0.00059920351
0.00060771137
0.00023426218
0.00023425637
0.00053050527
0.00052966512
0.00059920488
0.0005989741
0.00060739229
0.00060748987
0.00060770954
0.00060770791
0.00052643538
0.00052895354
0.00022499473
0.00059530148
0.00023367203
0.00023295598
0.00023230409
0.00051897089
0.00022792595
0.00052167763
0.00023333994
0.00023209988
0.00052641035
0.00052962719
0.00052991512
0.00022974882
0.00023174077
0.00050304592
0.00051709225
0.00053067462
0.00053067554
0.00059920739
0.00023501047
0.00060771127
0.00053067609
0.00053067579
0.00059920748
0.00023302693
0.00023301951
0.00051991868
0.00023485202
0.00023485263
0.00023301519
0.00023301757
0.00051991013
0.00060840471
0.00060840501
0.00060831906
0.00060840467
0.00060836086
0.00059840264
0.00060763968
0.00059773483
0.00060757439
0.00060837101
0.00060840531
0.00060840521
0.00060840511
0.00060840527
0.00059906569
0.00060766919
0.00060840661
0.00060840658
0.00060840661
0.00060840658
0.00023489226
0.00023489134
0.00060837092
0.00060837092
0.00059919542
0.00059919557
0.00053053782
0.0006077099
0.00053054428
0.00059907337
0.00059895872
0.00022906645
0.00023071097
0.00060834161
0.00060835078
0.00022536102
0.00022536037
0.00045173613
0.00022637511
0.000226375
0.00060840534
0.00060840658
0.00060840534
0.00060840658
0.00045176194
0.00045177213
0.00022538721
0.00022537549
0.00045175026
0.00022637477
0.00060840534
0.00060840658
0.00060840534
0.00060840658
0.00022555516
0.00045229049
0.00022589548
0.00022590238
0.00045177244
0.00045177214
0.00051977651
0.00051978164
0.0005212991
0.00022553219
0.00052129849
0.00051978869
0.00051978516
0.00052129856
0.0002253326
0.00045133376
0.00022521195
0.00044470188
0.00052998122
0.00059906502
0.00059917838
0.00053044873
0.00022814521
0.00023343314
0.0006083132
0.000607174
0.00060836531
0.00060748471
0.0006083599
0.00060837019
0.00052867852
0.00059873452
0.00052500158
0.00059788006
0.00045161907
0.00045161021
0.00059921249
0.000530593
0.00053059101
0.00059921095
0.00023492543
0.00023492465
0.00059921255
0.00053059378
0.00053059412
0.00059921262
0.00053059441
0.00021540705
0.00043262022
0.00021721317
0.00022119393
0.00044401214
0.00022281821
0.00060840472
0.00060840657
0.00045142115
0.00022538672
0.00060840531
0.00060840657
0.00060840531
0.00060840531
0.00060840531
0.00059920366
0.00060771138
0.00059920372
0.00060771138
0.00060837101
0.00060840531
0.00060840531
0.00060840531
0.00060840531
0.00059920351
0.00060771137
0.00060771137
0.00023425809
0.00053050524
0.00052966508
0.00023421959
0.0005989741
0.00060739229
0.00060748987
0.00052643533
0.0005289535
0.00022499466
0.00023295599
0.00023230412
0.00051994429
0.00051897135
0.00051124308
0.00022792595
0.00053020673
0.00052962718
0.00052991512
0.00022974887
0.00023174081
0.00050304731
0.00053067461
0.00053067553
0.0005992057
0.00059920739
0.00060771126
0.00053067607
0.00053067577
0.00023302692
0.00023301951
0.00051994041
0.00023485302
0.00023485199
0.00052115834
0.00023301522
0.00023301758
0.00051991021
0.00051991564
0.00060840471
0.00060840501
0.00060831906
0.00060840467
0.00060836086
0.00059840264
0.00060763968
0.00060837101
0.00060840521
0.00060840511
0.00059906569
0.00060766919
0.00060840661
0.00060840658
0.00060840658
0.00060840661
0.00060840658
0.00060840658
0.00045145173
0.00022621872
0.00042612644
0.00042612644
0.00045228169
0.00054720622
0.00054723553
0.00053458684
0.00045230431
0.00054721457
0.0005472437
0.00023495568
0.0002256816
0.00024147528
0.00024978156
0.00054724261
0.00054724476
0.0002349185
0.00024977809
0.0004523081
0.0004523081
0.00022447537
0.00023194387
0.00044739511
0.00022447537
0.00023194387
0.00023489209
0.00053054538
0.00060837093
0.00060771005
0.00023254946
0.00052789491
0.00060836039
0.00060766082
0.00023438691
0.00022621941
0.00045228821
0.00053054537
0.00060837093
0.00060771005
0.00052789491
0.00060836039
0.00060766082
0.00045228823
0.00023438626
0.00023437566
0.00054662234
0.00054665967
0.0002262161
0.00022521964
0.00054541825
0.00022483747
0.00044858838
0.0004263824
0.0005179692
0.00052031439
0.00045167727
0.00052115065
0.00023424885
0.0005205389
0.0002338721
0.00044858838
0.0004263824
0.0005043516
0.0002220532
0.0004505445
0.00022614366
0.00023437565
0.00023190114
0.00051717439
0.00023182298
0.00052115082
0.00023424896
0.00052054187
0.00023399795
0.00023488596
0.00060837093
0.00060837093
0.00060771004
0.00023487864
0.00053052804
0.00060837092
0.00060770978
0.00060837022
0.00060768284
0.00023438279
0.00023438532
0.00024977468
0.0005472347
0.00054723765
0.00023457853
0.00023261303
0.0002492588
0.00024978306
0.0005472488
0.00022621787
0.00022621889
0.00060766808
0.0005472467
0.00024929621
0.00022637483
0.00045229047
0.00022623846
0.00045177319
0.00045177168
0.00023286876
0.00052129856
0.00023287189
0.00022623796
0.00022619058
0.00022584167
0.00060836531
0.0002348851
0.00023444685
0.00060836845
0.00060771217
0.00060771216
0.00023492574
0.00023492205
0.00023492439
0.00060771213
0.00060837106
0.00022636887
0.00060771127
0.00060837102
0.00060840531
0.00060771126
0.00060771126
0.00060840531
0.00060840531
0.00060771126
0.00052115941
0.00023426214
0.00052115777
0.00052115913
0.00023425997
0.00060771121
0.00023499587
0.00023421962
0.0005987103
0.00051994424
0.00051701685
0.0002245263
0.00052826193
0.00053050149
0.00023484215
0.0005992057
0.00023500024
0.00023501296
0.00059920741
0.00023501069
0.0005199405
0.00023485337
0.00051991587
0.00060840173
0.00060837016
0.00060840661
0.000608371
0.00060840661
0.00060840661
0.00060840534
0.00060840661
0.00060840661
0.00060840661
0.00060840534
0.00060837019
0.00023488596
0.00060837093
0.0002348899
0.00060771004
0.00023487864
0.00053052804
0.00060837092
0.00060770978
0.00023450889
0.00052995295
0.00060768284
0.00022637419
0.00022637482
0.00045177326
0.00045177164
0.0002343869
0.00052129875
0.000232861
0.00023286879
0.00045174574
0.00022619058
0.00023289503
0.00023287192
0.00022584167
0.00060765247
0.00060837105
0.00060769574
0.00060836845
0.00060837105
0.00060771217
0.00060771216
0.00023492572
0.00060837106
0.00060771213
0.00060771216
0.00022636887
0.00022537517
0.00060771127
0.00060837102
0.00060840531
0.00060837101
0.00060771126
0.00060837101
0.00023426118
0.00052115749
0.00023425943
0.0005211569
0.00023425557
0.00052115702
0.00023499585
0.00060771121
0.00059920488
0.00059530147
0.00023367199
0.0005987103
0.00051701685
0.0002245263
0.00023333994
0.00052826193
0.00053050149
0.00051709301
0.00023500023
0.00060771126
0.00023501045
0.00059920748
0.000235013
0.00059920741
0.00023501067
0.00051991844
0.00023485328
0.00023484688
0.00060840173
0.00060840531
0.00060840527
0.00060837016
0.00060840534
0.00060840534
0.000608371
0.00060840661
0.00060840534
0.00060840534
0.00060840661
0.00060840661
0.00060840152
0.00060836082
0.00060840661
0.00060840661
0.00060840534
0.0006084052
0.00023438279
0.00023438532
0.00021524598
0.00042436376
0.00021684148
0.00043555307
0.00043555307
0.00021684148
0.00043229337
0.00022520937
0.00045142773
0.00022520827
0.00023399403
0.00045228236
0.00045228249
0.00022587347
0.00045142893
0.0004511206
0.00022523845
0.00059940519
0.00059320071
0.00052913348
0.00054714663
0.00059318638
0.00023402385
0.00054006431
0.00059549231
0.00058726322
0.00051546878
0.0005892955
0.00059319942
0.00052913374
0.00054718263
0.00059318659
0.00052911563
0.00059545566
0.00058726362
0.00051546966
0.00058929573
0.00052038702
0.00045213212
0.0002259064
0.00045213212
0.00022589231
0.0002259064
0.0004511206
0.00022523869
0.00022523316
0.00024976131
0.00024977956
0.0005993944
0.00059319972
0.00054722296
0.00059319975
0.00054724264
0.00059937349
0.0005931977
0.00059319794
0.0002496927
0.00024458961
0.00024978439
0.00054724829
0.00024978278
0.00054724619
0.00059320007
0.00052912347
0.00059320179
0.00052911501
0.00023401966
0.0005931977
0.00052909279
0.00059319812
0.00052909469
0.00023486672
0.0002497284
0.00024377603
0.00060840534
0.00060840658
0.00045230242
0.00045164098
0.00022534395
0.0002262643
0.00042418411
0.00021253562
0.0002171271
0.00045163612
0.00022533765
0.00022629847
0.00022532877
0.00022630004
0.00045160678
0.00022630126
0.00022530611
0.00022630124
0.00059920374
0.00060771138
0.00059920332
0.00060771136
0.00059693844
0.00060732821
0.00060840534
0.00060840658
0.00060840534
0.00060840658
0.00045230243
0.00045164098
0.00022629703
0.00022534395
0.0002262643
0.00042418411
0.00021164848
0.00021624628
0.00045163613
0.00022532878
0.00022630004
0.00045160689
0.00022530563
0.00060840348
0.00060840648
0.00059693844
0.00022523318
0.00045145369
0.0004436985
0.0002119103
0.00022828337
0.0004482094
0.00022392669
0.00023001378
0.00023301145
0.00051616166
0.00052825301
0.0002170474
0.00051616166
0.00022243056
0.0004433367
0.00022404866
0.00021283057
0.00021615804
0.00022483747
0.0004433367
0.00022243056
0.00022404866
0.00021283057
0.00021615804
0.0004482094
0.00022392669
0.00042436375
0.0002119103
0.00022828337
0.00023001378
0.00053054604
0.00059919572
0.00060771005
0.00060837092
0.00059919573
0.00053054586
0.00060771005
0.00060837092
0.00052219641
0.00059627861
0.00060728997
0.00060834161
0.00059523608
0.00052534421
0.00060754522
0.00060835078
0.00022521223
0.00023438674
0.00045143568
0.00022521658
0.00023400003
0.00052953486
0.00052953394
0.00052953415
0.00022587538
0.00045228431
0.00022587954
0.00022623956
0.00060840661
0.00060840661
0.00060840661
0.00060840658
0.00060840534
0.00060840661
0.00060840661
0.00060840534
0.00060840534
0.00060840658
0.00060840661
0.00060840661
0.00060840661
0.00060840643
0.00060840152
0.00060840661
0.00060840661
0.00060840506
0.00060840473
0.00060840648
0.00053054603
0.00059919572
0.00060771005
0.00059919572
0.00053054585
0.00060771005
0.00052219641
0.00059523608
0.00060728997
0.00059627861
0.00052534421
0.00060754522
0.00022623843
0.00022587956
0.000226239
0.00045228434
0.00022587542
0.00022623945
0.00060840661
0.00060840661
0.00060840661
0.00060840658
0.00060840534
0.00060840658
0.00060840661
0.00060840661
0.00060840661
0.00060840661
0.00060840661
0.00060840643
0.00060840304
0.00060840661
0.00060840506
0.00060840648
0.00022521665
0.00045142789
0.00022520848
0.00045143573
0.0002343866
0.0004503452
0.00022479622
0.00045145456
0.00023424561
0.00044957498
0.00022435617
0.00023293366
0.00023338284
0.00052911529
0.0006076984
0.00059300069
0.00052900915
0.00059316573
0.00060769769
0.00023328813
0.0005287349
0.00052953471
0.00052954904
0.00060742178
0.00060724034
0.00060764453
0.00052639361
0.00059208114
0.00059059672
0.00052038625
0.00023017428
0.00052457254
0.00060706655
0.00023293412
0.00060769718
0.00052857131
0.00059300064
0.00059316575
0.00060769693
0.00023328857
0.00052900954
0.0005287349
0.00023334509
0.00022588191
0.00052954904
0.00060742163
0.00060724011
0.0006076424
0.00052639426
0.00059208118
0.00059059685
0.0002265659
0.00023017475
0.00052457327
0.00060706263
0.00022504298
0.0004505445
0.00045134038
0.00022629703
0.00022547681
0.00022550152
0.00045135448
0.00022526569
0.00022465717
0.00022614366
0.0002219485
0.00044170718
0.00051059243
0.00022567884
0.00051525175
0.00023011335
0.0002328936
0.00052115338
0.00052072949
0.0002323906
0.00022586357
0.00045155736
0.00022604999
0.0002237509
0.00021975868
0.00022386459
0.00022815638
0.00051123624
0.00022988741
0.00051410308
0.00023411891
0.00052099292
0.0002339955
0.00022504298
0.00045134038
0.00022550736
0.00045167727
0.00022547681
0.00022612181
0.00022550152
0.00022465717
0.00045135448
0.00022526569
0.00022604999
0.0002219485
0.00044170718
0.00051059243
0.00022567884
0.00051525175
0.00023011335
0.00022586357
0.00045155736
0.0002328936
0.00052115338
0.00052072949
0.00023412194
0.0002323906
0.0002237509
0.00021253562
0.0002171271
0.00021975868
0.00022816221
0.00022989334
0.00051410908
0.00023412024
0.00023399744
0.00052084404
0.0004503452
0.00045145456
0.00022523846
0.00023424561
0.00044957497
0.00022435617
0.00053054264
0.00059919519
0.00023488861
0.00060771003
0.00060837093
0.00059919333
0.0005305435
0.00023488926
0.00060771004
0.00053039975
0.00059918979
0.00023475157
0.00060770943
0.00060837069
0.00059919156
0.00053017553
0.00023462983
0.00060769608
0.00045144368
0.00022522494
0.00045145369
0.00022523581
0.00045143828
0.00022521937
0.00023438473
0.00024976906
0.0005472322
0.00024977726
0.00054724026
0.00060769554
0.00052911486
0.0006076966
0.00052910248
0.00059319946
0.00059320052
0.00060769722
0.00023337077
0.00052910815
0.00052955331
0.00060769542
0.00023336259
0.00023336114
0.00052909786
0.00059319825
0.00059319806
0.00023335955
0.00052909441
0.0005290962
0.0006076953
0.0002348872
0.00023095621
0.00024964454
0.00024601699
0.00024978683
0.00024978301
0.00060769596
0.00023336636
0.00054725075
0.00059320006
0.0005932011
0.00023337712
0.00060769676
0.0002333711
0.00052910827
0.00023400201
0.00052955168
0.00022621856
0.00052955331
0.00060766811
0.00060769585
0.00023336289
0.00054724656
0.00059319874
0.00059319846
0.00023335997
0.0006076955
0.00060769538
0.00023336143
0.00052909634
0.00023481286
0.00023084137
0.00024968258
0.00024771623
0.00022637473
0.00022531302
0.00022536242
0.00045173551
0.00022536654
0.00045174145
0.00060840534
0.00060837105
0.00060837106
0.00060840661
0.00022536912
0.00045174395
0.00045177213
0.00022539793
0.00060837106
0.00060837106
0.00060840534
0.00060840661
0.00060840661
0.00022530552
0.00022553826
0.00045177622
0.00045176773
0.00022555044
0.00045174574
0.00045175673
0.00022554572
0.00022630145
0.00022622201
0.00045229299
0.00022588556
0.00022588255
0.00022623906
0.00045177237
0.00022623947
0.00045177216
0.00052129868
0.00023286173
0.00052129887
0.00023286421
0.00023288659
0.00052129901
0.00052129837
0.00023287502
0.00022620629
0.00022553473
0.00022553331
0.00022553268
0.00044898032
0.00022493759
0.00022404273
0.00022612181
0.00022521195
0.0004468411
0.00022297651
0.00022279159
0.00022191029
0.00023484856
0.00059920886
0.00060771137
0.00053051064
0.00059920563
0.00060769574
0.00022814521
0.00060732778
0.00060833541
0.00023481287
0.00060770975
0.00060837019
0.00060770814
0.00060836932
0.00059533929
0.00059637033
0.00052132209
0.00045161447
0.00022531749
0.00022630157
0.00045161232
0.00022531095
0.00022630137
0.00022530889
0.00022630129
0.00053059102
0.00059921195
0.0005305896
0.00059921143
0.00060771214
0.00060771216
0.00060771215
0.00060837105
0.00060771216
0.00060837105
0.00060771216
0.00023492544
0.00023492249
0.00023492317
0.00060837106
0.0005992126
0.00053059415
0.00059921262
0.0005305943
0.00022603443
0.0002257048
0.00022119393
0.00044401214
0.00042470053
0.00022407951
0.00044851982
0.00060840661
0.00060840661
0.00022493991
0.00045064471
0.00045177221
0.00022540334
0.00022450971
0.00044988489
0.00060840661
0.00060840661
0.00060840531
0.00060837101
0.00060840531
0.00060837101
0.00060771126
0.000608371
0.00053051459
0.00053051433
0.00053051316
0.00053051381
0.000608371
0.00060837101
0.00060771126
0.00060840531
0.00060840531
0.00060837101
0.00053050637
0.00053050927
0.00059920342
0.00060771137
0.000608371
0.0005305116
0.000608371
0.000608371
0.00023426234
0.00052115981
0.0002342626
0.00052115989
0.00023425823
0.0002342591
0.00059920113
0.00053064358
0.00023498326
0.00053065848
0.00023487112
0.00059917355
0.00022743862
0.0005205849
0.00051725257
0.00059639706
0.00023177727
0.0005979979
0.00051991917
0.00023304244
0.00023304516
0.00051980228
0.00052084181
0.00023406242
0.00023457949
0.00053020673
0.00023431912
0.00050821759
0.00022513773
0.0002225186
0.00051396449
0.00059920648
0.00053066363
0.00023500462
0.00053066878
0.00059920731
0.00060771126
0.00023500962
0.00059920748
0.00053067644
0.00023501232
0.00053067643
0.00059920744
0.00023501096
0.00051993614
0.00023303576
0.00052115862
0.00023484689
0.0002330391
0.00023485041
0.00023485102
0.00051992679
0.00052115896
0.00023485314
0.00053051044
0.00023485092
0.00023301254
0.00051991049
0.00023301242
0.00051991332
0.00060840333
0.00060834136
0.00060840406
0.00060835159
0.00060831898
0.00060836082
0.00060835154
0.00060837079
0.0006084053
0.00060840528
0.00060837048
0.000608371
0.00060837073
0.00059911721
0.00060768969
0.00060840661
0.00060840661
0.00060840661
0.00060840534
0.000608371
0.00060840661
0.00060840658
0.00060840661
0.00060840661
0.00060840658
0.00060840658
0.00060840534
0.00060840661
0.00060840534
0.00060840534
0.00060840661
0.00060840661
0.00060840661
0.000608371
0.00060840661
0.00060840658
0.00060840661
0.00060840661
0.00060840658
0.00060840658
0.00060840529
0.00060840661
0.0006084052
0.00060840524
0.00060840661
0.00060840661
0.00060840304
0.00060834131
0.00060840661
0.00060840661
0.00060840661
0.00060837046
0.00053054264
0.00059919519
0.00023488861
0.00060771003
0.00060837093
0.00059919333
0.0005305435
0.00023488926
0.00060771004
0.00060837093
0.00053039975
0.00059918979
0.00023475157
0.00060770943
0.00060837069
0.00059919156
0.00053017553
0.00023462983
0.00060769608
0.00060837046
0.00022533765
0.00022637473
0.00022531304
0.00022536277
0.00045173778
0.00022536648
0.00045173554
0.00045174139
0.00060840661
0.00060840661
0.00060837106
0.00060837105
0.00060840661
0.00060840661
0.00022530624
0.00022539794
0.00022536909
0.00045174391
0.00060840661
0.00060840661
0.00060837106
0.00060837106
0.00060840661
0.00022553833
0.00045177627
0.00022554575
0.00045176775
0.00022555046
0.00022629847
0.00022630145
0.00022630157
0.00022623794
0.00045229301
0.00022588557
0.00022588257
0.00022620629
0.00022623933
0.00052129869
0.00023438673
0.00023286192
0.00023286426
0.00052129886
0.00022622199
0.00045175674
0.00022553483
0.00022553344
0.00022553282
0.00022630126
0.00022630124
0.00022630137
0.0002328866
0.00052129901
0.00023287504
0.00052129837
0.00023438473
0.00044898032
0.00022493759
0.00022404273
0.0004468411
0.00022386459
0.00022297651
0.00022279159
0.00022191029
0.00059920886
0.00060771137
0.00060770975
0.00053054955
0.00023488509
0.00023444685
0.00023481287
0.00059920563
0.00053051064
0.000230448
0.00060732778
0.00060833541
0.00060770814
0.00060836932
0.00023484856
0.00051812129
0.00052132209
0.00059533929
0.00059637033
0.00045161449
0.0002253175
0.00045161235
0.00022531098
0.00022530892
0.00022630129
0.00059921195
0.00053058821
0.00023492202
0.00023492246
0.00023492434